<?xml version="1.0" encoding="UTF-8"?>

<!-- generated on 2023-09-14 14:43:50 by Eclipse SUMO sumo Version 1.18.0
<configuration xmlns:xsi="http://www.w3.org/2001/XMLSchema-instance" xsi:noNamespaceSchemaLocation="http://sumo.dlr.de/xsd/sumoConfiguration.xsd">

    <input>
        <net-file value="./real-world-simulation-withTLS/xuancheng.net.xml"/>
        <route-files value="./real-world-simulation-withTLS/xuancheng.rou.xml"/>
        <additional-files value="./real-world-simulation-withTLS/add.add.xml,./real-world-simulation-withTLS/newTLS.add.xml"/>
    </input>

    <processing>
        <collision.action value="none"/>
        <time-to-teleport value="300"/>
    </processing>

    <traci_server>
        <remote-port value="9802"/>
    </traci_server>

    <mesoscopic>
        <mesosim value="TRUE"/>
    </mesoscopic>

</configuration>
-->

<meandata xmlns:xsi="http://www.w3.org/2001/XMLSchema-instance" xsi:noNamespaceSchemaLocation="http://sumo.dlr.de/xsd/meandata_file.xsd">
    <interval begin="0.00" end="1801.00" id="test_1">
        <edge id="1025_op" sampledSeconds="0.00" departed="7" arrived="0" entered="0" left="0" laneChangedFrom="0" laneChangedTo="0"/>
        <edge id="1025_sa" sampledSeconds="0.74" traveltime="50.42" overlapTraveltime="50.85" density="0.00" laneDensity="0.00" occupancy="0.00" waitingTime="0.00" timeLoss="0.00" speed="11.85" speedRelative="0.85" departed="9" arrived="0" entered="0" left="0" laneChangedFrom="0" laneChangedTo="0"/>
        <edge id="1027_op" sampledSeconds="0.00" departed="8" arrived="0" entered="0" left="0" laneChangedFrom="0" laneChangedTo="0"/>
        <edge id="1027_sa" sampledSeconds="0.00" departed="9" arrived="0" entered="0" left="0" laneChangedFrom="0" laneChangedTo="0"/>
        <edge id="1047_op" sampledSeconds="0.28" traveltime="46.37" overlapTraveltime="46.80" density="0.00" laneDensity="0.00" occupancy="0.00" waitingTime="0.00" timeLoss="0.00" speed="11.80" speedRelative="0.85" departed="7" arrived="0" entered="0" left="0" laneChangedFrom="0" laneChangedTo="0"/>
        <edge id="1047_sa" sampledSeconds="0.19" traveltime="39.51" overlapTraveltime="39.87" density="0.00" laneDensity="0.00" occupancy="0.00" waitingTime="0.00" timeLoss="0.00" speed="13.86" speedRelative="1.00" departed="6" arrived="0" entered="1" left="0" laneChangedFrom="0" laneChangedTo="0"/>
        <edge id="1214_op" sampledSeconds="0.00" departed="9" arrived="0" entered="0" left="0" laneChangedFrom="0" laneChangedTo="0"/>
        <edge id="1214_sa" sampledSeconds="0.17" traveltime="29.73" overlapTraveltime="30.11" density="0.00" laneDensity="0.00" occupancy="0.00" waitingTime="0.00" timeLoss="0.00" speed="13.18" speedRelative="0.95" departed="8" arrived="0" entered="0" left="0" laneChangedFrom="0" laneChangedTo="0"/>
        <edge id="1215_op" sampledSeconds="0.00" departed="6" arrived="0" entered="0" left="0" laneChangedFrom="0" laneChangedTo="0"/>
        <edge id="1215_sa" sampledSeconds="0.26" traveltime="24.72" overlapTraveltime="25.15" density="0.00" laneDensity="0.00" occupancy="0.00" waitingTime="0.00" timeLoss="0.00" speed="11.62" speedRelative="0.84" departed="8" arrived="0" entered="1" left="0" laneChangedFrom="0" laneChangedTo="0"/>
        <edge id="1216_op" sampledSeconds="0.31" traveltime="43.71" overlapTraveltime="44.07" density="0.00" laneDensity="0.00" occupancy="0.00" waitingTime="0.00" timeLoss="0.04" speed="13.89" speedRelative="1.00" departed="7" arrived="0" entered="0" left="0" laneChangedFrom="0" laneChangedTo="0"/>
        <edge id="1216_sa" sampledSeconds="2.21" traveltime="48.95" overlapTraveltime="49.35" density="0.00" laneDensity="0.00" occupancy="0.00" waitingTime="0.00" timeLoss="0.07" speed="12.40" speedRelative="0.89" departed="2" arrived="0" entered="0" left="0" laneChangedFrom="0" laneChangedTo="0"/>
        <edge id="1217_op" sampledSeconds="1.67" traveltime="27.25" overlapTraveltime="27.70" density="0.00" laneDensity="0.00" occupancy="0.00" waitingTime="0.00" timeLoss="0.21" speed="11.09" speedRelative="0.80" departed="8" arrived="0" entered="1" left="0" laneChangedFrom="0" laneChangedTo="0"/>
        <edge id="1217_sa" sampledSeconds="0.66" traveltime="25.44" overlapTraveltime="25.86" density="0.00" laneDensity="0.00" occupancy="0.00" waitingTime="0.00" timeLoss="0.00" speed="11.89" speedRelative="0.86" departed="5" arrived="0" entered="1" left="0" laneChangedFrom="0" laneChangedTo="0"/>
        <edge id="1220_op" sampledSeconds="0.99" traveltime="42.20" overlapTraveltime="42.58" density="0.00" laneDensity="0.00" occupancy="0.00" waitingTime="0.00" timeLoss="0.00" speed="13.25" speedRelative="0.95" departed="0" arrived="0" entered="0" left="0" laneChangedFrom="0" laneChangedTo="0"/>
        <edge id="1220_sa" sampledSeconds="0.00" departed="8" arrived="0" entered="0" left="0" laneChangedFrom="0" laneChangedTo="0"/>
        <edge id="1221_op" sampledSeconds="0.00" departed="7" arrived="0" entered="0" left="0" laneChangedFrom="0" laneChangedTo="0"/>
        <edge id="1221_sa" sampledSeconds="0.35" traveltime="15.84" overlapTraveltime="16.23" density="0.00" laneDensity="0.00" occupancy="0.00" waitingTime="0.00" timeLoss="0.00" speed="12.94" speedRelative="0.93" departed="8" arrived="0" entered="1" left="0" laneChangedFrom="0" laneChangedTo="0"/>
        <edge id="1222_op" sampledSeconds="0.18" traveltime="16.80" overlapTraveltime="17.15" density="0.00" laneDensity="0.00" occupancy="0.00" waitingTime="0.00" timeLoss="0.00" speed="14.05" speedRelative="1.01" departed="0" arrived="0" entered="0" left="0" laneChangedFrom="0" laneChangedTo="0"/>
        <edge id="1222_sa" sampledSeconds="0.00" departed="0" arrived="0" entered="0" left="0" laneChangedFrom="0" laneChangedTo="0"/>
        <edge id="1229_op" sampledSeconds="0.87" traveltime="43.91" overlapTraveltime="44.34" density="0.00" laneDensity="0.00" occupancy="0.00" waitingTime="0.00" timeLoss="0.28" speed="11.79" speedRelative="0.85" departed="7" arrived="0" entered="0" left="0" laneChangedFrom="0" laneChangedTo="0"/>
        <edge id="1229_sa" sampledSeconds="0.00" departed="9" arrived="0" entered="0" left="0" laneChangedFrom="0" laneChangedTo="0"/>
        <edge id="15207_op" sampledSeconds="0.00" departed="0" arrived="0" entered="0" left="0" laneChangedFrom="0" laneChangedTo="0"/>
        <edge id="15207_sa" sampledSeconds="0.00" departed="9" arrived="0" entered="0" left="0" laneChangedFrom="0" laneChangedTo="0"/>
        <edge id="15217_op" sampledSeconds="0.00" departed="0" arrived="0" entered="0" left="0" laneChangedFrom="0" laneChangedTo="0"/>
        <edge id="15217_sa" sampledSeconds="0.00" departed="6" arrived="0" entered="0" left="0" laneChangedFrom="0" laneChangedTo="0"/>
        <edge id="15342_op" sampledSeconds="0.71" traveltime="100.29" overlapTraveltime="100.71" density="0.00" laneDensity="0.00" occupancy="0.00" waitingTime="0.00" timeLoss="0.13" speed="12.05" speedRelative="0.87" departed="8" arrived="0" entered="0" left="0" laneChangedFrom="0" laneChangedTo="0"/>
        <edge id="15342_sa" sampledSeconds="3.02" traveltime="91.96" overlapTraveltime="92.34" density="0.00" laneDensity="0.00" occupancy="0.00" waitingTime="0.00" timeLoss="0.35" speed="13.14" speedRelative="0.95" departed="7" arrived="0" entered="1" left="0" laneChangedFrom="0" laneChangedTo="0"/>
        <edge id="21138_op" sampledSeconds="1.00" traveltime="33.33" overlapTraveltime="33.69" density="0.00" laneDensity="0.00" occupancy="0.00" waitingTime="0.00" timeLoss="0.07" speed="13.87" speedRelative="1.00" departed="6" arrived="0" entered="0" left="0" laneChangedFrom="0" laneChangedTo="0"/>
        <edge id="21138_sa" sampledSeconds="0.79" traveltime="33.08" overlapTraveltime="33.43" density="0.00" laneDensity="0.00" occupancy="0.00" waitingTime="0.00" timeLoss="0.00" speed="13.97" speedRelative="1.01" departed="0" arrived="0" entered="0" left="0" laneChangedFrom="0" laneChangedTo="0"/>
        <edge id="21139_op" sampledSeconds="0.00" departed="8" arrived="0" entered="0" left="0" laneChangedFrom="0" laneChangedTo="0"/>
        <edge id="21139_sa" sampledSeconds="0.00" departed="0" arrived="0" entered="0" left="0" laneChangedFrom="0" laneChangedTo="0"/>
        <edge id="21140_op" sampledSeconds="0.00" departed="0" arrived="0" entered="0" left="0" laneChangedFrom="0" laneChangedTo="0"/>
        <edge id="21140_sa" sampledSeconds="0.00" departed="0" arrived="0" entered="0" left="0" laneChangedFrom="0" laneChangedTo="0"/>
        <edge id="21184_op" sampledSeconds="1.22" traveltime="39.51" overlapTraveltime="39.89" density="0.00" laneDensity="0.00" occupancy="0.00" waitingTime="0.00" timeLoss="0.04" speed="13.07" speedRelative="0.94" departed="9" arrived="0" entered="0" left="0" laneChangedFrom="0" laneChangedTo="0"/>
        <edge id="21184_sa" sampledSeconds="1.63" traveltime="39.58" overlapTraveltime="39.96" density="0.00" laneDensity="0.00" occupancy="0.00" waitingTime="0.00" timeLoss="0.07" speed="13.09" speedRelative="0.94" departed="4" arrived="0" entered="1" left="0" laneChangedFrom="0" laneChangedTo="0"/>
        <edge id="21185_op" sampledSeconds="0.18" traveltime="32.44" overlapTraveltime="32.85" density="0.00" laneDensity="0.00" occupancy="0.00" waitingTime="0.00" timeLoss="0.01" speed="11.98" speedRelative="0.86" departed="4" arrived="0" entered="1" left="0" laneChangedFrom="0" laneChangedTo="0"/>
        <edge id="21185_sa" sampledSeconds="0.54" traveltime="32.18" overlapTraveltime="32.59" density="0.00" laneDensity="0.00" occupancy="0.00" waitingTime="0.00" timeLoss="0.00" speed="12.08" speedRelative="0.87" departed="1" arrived="0" entered="0" left="0" laneChangedFrom="0" laneChangedTo="0"/>
        <edge id="21186_op" sampledSeconds="0.65" traveltime="23.38" overlapTraveltime="23.75" density="0.00" laneDensity="0.00" occupancy="0.00" waitingTime="0.00" timeLoss="0.00" speed="13.27" speedRelative="0.96" departed="6" arrived="0" entered="1" left="0" laneChangedFrom="0" laneChangedTo="0"/>
        <edge id="21186_sa" sampledSeconds="0.56" traveltime="23.98" overlapTraveltime="24.37" density="0.00" laneDensity="0.00" occupancy="0.00" waitingTime="0.00" timeLoss="0.00" speed="12.89" speedRelative="0.93" departed="7" arrived="0" entered="1" left="0" laneChangedFrom="0" laneChangedTo="0"/>
        <edge id="21187_op" sampledSeconds="0.46" traveltime="71.79" overlapTraveltime="72.17" density="0.00" laneDensity="0.00" occupancy="0.00" waitingTime="0.00" timeLoss="0.00" speed="13.04" speedRelative="0.94" departed="8" arrived="0" entered="0" left="0" laneChangedFrom="0" laneChangedTo="0"/>
        <edge id="21187_sa" sampledSeconds="1.00" traveltime="86.69" overlapTraveltime="87.15" density="0.00" laneDensity="0.00" occupancy="0.00" waitingTime="0.00" timeLoss="0.19" speed="10.77" speedRelative="0.78" departed="6" arrived="0" entered="0" left="0" laneChangedFrom="0" laneChangedTo="0"/>
        <edge id="21190_op" sampledSeconds="0.00" departed="3" arrived="0" entered="0" left="0" laneChangedFrom="0" laneChangedTo="0"/>
        <edge id="21190_sa" sampledSeconds="0.31" traveltime="24.43" overlapTraveltime="24.76" density="0.00" laneDensity="0.00" occupancy="0.00" waitingTime="0.00" timeLoss="0.00" speed="15.03" speedRelative="1.08" departed="0" arrived="0" entered="0" left="0" laneChangedFrom="0" laneChangedTo="0"/>
        <edge id="21192_op" sampledSeconds="0.03" traveltime="21.60" overlapTraveltime="22.02" density="0.00" laneDensity="0.00" occupancy="0.00" waitingTime="0.00" timeLoss="0.00" speed="12.02" speedRelative="0.87" departed="6" arrived="0" entered="1" left="0" laneChangedFrom="0" laneChangedTo="0"/>
        <edge id="21192_sa" sampledSeconds="0.00" departed="3" arrived="0" entered="0" left="0" laneChangedFrom="0" laneChangedTo="0"/>
        <edge id="21193_op" sampledSeconds="0.00" departed="1" arrived="0" entered="0" left="0" laneChangedFrom="0" laneChangedTo="0"/>
        <edge id="21193_sa" sampledSeconds="0.00" departed="0" arrived="0" entered="0" left="0" laneChangedFrom="0" laneChangedTo="0"/>
        <edge id="21194_op" sampledSeconds="0.00" departed="9" arrived="0" entered="0" left="0" laneChangedFrom="0" laneChangedTo="0"/>
        <edge id="21194_sa" sampledSeconds="0.47" traveltime="59.19" overlapTraveltime="59.50" density="0.00" laneDensity="0.00" occupancy="0.00" waitingTime="0.00" timeLoss="0.00" speed="16.25" speedRelative="1.17" departed="9" arrived="0" entered="0" left="0" laneChangedFrom="0" laneChangedTo="0"/>
        <edge id="21197_op" sampledSeconds="0.00" departed="8" arrived="0" entered="0" left="0" laneChangedFrom="0" laneChangedTo="0"/>
        <edge id="21197_sa" sampledSeconds="0.00" departed="0" arrived="0" entered="0" left="0" laneChangedFrom="0" laneChangedTo="0"/>
        <edge id="21198_op" sampledSeconds="0.00" departed="0" arrived="0" entered="0" left="0" laneChangedFrom="0" laneChangedTo="0"/>
        <edge id="21198_sa" sampledSeconds="0.00" departed="7" arrived="0" entered="0" left="0" laneChangedFrom="0" laneChangedTo="0"/>
        <edge id="21199_op" sampledSeconds="0.00" departed="0" arrived="0" entered="0" left="0" laneChangedFrom="0" laneChangedTo="0"/>
        <edge id="21199_sa" sampledSeconds="0.00" departed="0" arrived="0" entered="0" left="0" laneChangedFrom="0" laneChangedTo="0"/>
        <edge id="21203_op" sampledSeconds="0.00" departed="0" arrived="0" entered="0" left="0" laneChangedFrom="0" laneChangedTo="0"/>
        <edge id="21203_sa" sampledSeconds="0.00" departed="0" arrived="0" entered="0" left="0" laneChangedFrom="0" laneChangedTo="0"/>
        <edge id="21204_op" sampledSeconds="0.00" departed="0" arrived="0" entered="0" left="0" laneChangedFrom="0" laneChangedTo="0"/>
        <edge id="21204_sa" sampledSeconds="0.00" departed="8" arrived="0" entered="0" left="0" laneChangedFrom="0" laneChangedTo="0"/>
        <edge id="21205_op" sampledSeconds="0.00" departed="8" arrived="0" entered="0" left="0" laneChangedFrom="0" laneChangedTo="0"/>
        <edge id="21205_sa" sampledSeconds="0.00" departed="2" arrived="0" entered="0" left="0" laneChangedFrom="0" laneChangedTo="0"/>
        <edge id="21207_op" sampledSeconds="1.55" traveltime="56.19" overlapTraveltime="56.64" density="0.00" laneDensity="0.00" occupancy="0.00" waitingTime="0.00" timeLoss="0.17" speed="11.18" speedRelative="0.81" departed="10" arrived="0" entered="0" left="0" laneChangedFrom="0" laneChangedTo="0"/>
        <edge id="21207_sa" sampledSeconds="0.00" departed="0" arrived="0" entered="0" left="0" laneChangedFrom="0" laneChangedTo="0"/>
        <edge id="21208_op" sampledSeconds="0.00" departed="0" arrived="0" entered="0" left="0" laneChangedFrom="0" laneChangedTo="0"/>
        <edge id="21208_sa" sampledSeconds="0.00" departed="9" arrived="0" entered="0" left="0" laneChangedFrom="0" laneChangedTo="0"/>
        <edge id="21209_op" sampledSeconds="0.00" departed="9" arrived="0" entered="0" left="0" laneChangedFrom="0" laneChangedTo="0"/>
        <edge id="21209_sa" sampledSeconds="0.48" traveltime="47.58" overlapTraveltime="47.88" density="0.00" laneDensity="0.00" occupancy="0.00" waitingTime="0.00" timeLoss="0.00" speed="16.51" speedRelative="1.19" departed="6" arrived="0" entered="0" left="0" laneChangedFrom="0" laneChangedTo="0"/>
        <edge id="21211_op" sampledSeconds="0.80" traveltime="55.82" overlapTraveltime="56.19" density="0.00" laneDensity="0.00" occupancy="0.00" waitingTime="0.00" timeLoss="0.00" speed="13.26" speedRelative="0.95" departed="6" arrived="0" entered="0" left="0" laneChangedFrom="0" laneChangedTo="0"/>
        <edge id="21211_sa" sampledSeconds="0.00" departed="8" arrived="0" entered="0" left="0" laneChangedFrom="0" laneChangedTo="0"/>
        <edge id="21212_op" sampledSeconds="0.00" departed="2" arrived="0" entered="0" left="0" laneChangedFrom="0" laneChangedTo="0"/>
        <edge id="21212_sa" sampledSeconds="0.00" departed="9" arrived="0" entered="0" left="0" laneChangedFrom="0" laneChangedTo="0"/>
        <edge id="21214_op" sampledSeconds="1.50" traveltime="37.55" overlapTraveltime="37.96" density="0.00" laneDensity="0.00" occupancy="0.00" waitingTime="0.00" timeLoss="0.24" speed="12.21" speedRelative="0.88" departed="1" arrived="0" entered="0" left="0" laneChangedFrom="0" laneChangedTo="0"/>
        <edge id="21214_sa" sampledSeconds="0.25" traveltime="35.07" overlapTraveltime="35.45" density="0.00" laneDensity="0.00" occupancy="0.00" waitingTime="0.00" timeLoss="0.06" speed="13.07" speedRelative="0.94" departed="5" arrived="0" entered="0" left="0" laneChangedFrom="0" laneChangedTo="0"/>
        <edge id="21215_op" sampledSeconds="3.82" traveltime="64.09" overlapTraveltime="64.51" density="0.00" laneDensity="0.00" occupancy="0.00" waitingTime="0.00" timeLoss="0.61" speed="11.78" speedRelative="0.85" departed="5" arrived="0" entered="1" left="0" laneChangedFrom="0" laneChangedTo="0"/>
        <edge id="21215_sa" sampledSeconds="1.86" traveltime="63.51" overlapTraveltime="63.93" density="0.00" laneDensity="0.00" occupancy="0.00" waitingTime="0.00" timeLoss="0.32" speed="11.89" speedRelative="0.86" departed="5" arrived="0" entered="1" left="0" laneChangedFrom="0" laneChangedTo="0"/>
        <edge id="21217_op" sampledSeconds="0.00" departed="10" arrived="0" entered="0" left="0" laneChangedFrom="0" laneChangedTo="0"/>
        <edge id="21217_sa" sampledSeconds="0.00" departed="10" arrived="0" entered="0" left="0" laneChangedFrom="0" laneChangedTo="0"/>
        <edge id="21218_op" sampledSeconds="0.00" departed="9" arrived="0" entered="0" left="0" laneChangedFrom="0" laneChangedTo="0"/>
        <edge id="21218_sa" sampledSeconds="0.00" departed="9" arrived="0" entered="0" left="0" laneChangedFrom="0" laneChangedTo="0"/>
        <edge id="21219_op" sampledSeconds="1.12" traveltime="39.18" overlapTraveltime="39.51" density="0.00" laneDensity="0.00" occupancy="0.00" waitingTime="0.00" timeLoss="0.00" speed="15.35" speedRelative="1.11" departed="9" arrived="0" entered="0" left="0" laneChangedFrom="0" laneChangedTo="0"/>
        <edge id="21219_sa" sampledSeconds="0.00" departed="9" arrived="0" entered="0" left="0" laneChangedFrom="0" laneChangedTo="0"/>
        <edge id="21220_op" sampledSeconds="0.00" departed="0" arrived="0" entered="0" left="0" laneChangedFrom="0" laneChangedTo="0"/>
        <edge id="21220_sa" sampledSeconds="0.00" departed="9" arrived="0" entered="0" left="0" laneChangedFrom="0" laneChangedTo="0"/>
        <edge id="21221_op" sampledSeconds="0.00" departed="0" arrived="0" entered="0" left="0" laneChangedFrom="0" laneChangedTo="0"/>
        <edge id="21221_sa" sampledSeconds="0.00" departed="0" arrived="0" entered="0" left="0" laneChangedFrom="0" laneChangedTo="0"/>
        <edge id="21222_op" sampledSeconds="0.00" departed="9" arrived="0" entered="0" left="0" laneChangedFrom="0" laneChangedTo="0"/>
        <edge id="21222_sa" sampledSeconds="0.00" departed="0" arrived="0" entered="0" left="0" laneChangedFrom="0" laneChangedTo="0"/>
        <edge id="21223_op" sampledSeconds="0.00" departed="0" arrived="0" entered="0" left="0" laneChangedFrom="0" laneChangedTo="0"/>
        <edge id="21223_sa" sampledSeconds="0.00" departed="5" arrived="0" entered="0" left="0" laneChangedFrom="0" laneChangedTo="0"/>
        <edge id="21224_op" sampledSeconds="0.11" traveltime="48.40" overlapTraveltime="48.81" density="0.00" laneDensity="0.00" occupancy="0.00" waitingTime="0.00" timeLoss="0.00" speed="12.06" speedRelative="0.87" departed="0" arrived="0" entered="0" left="0" laneChangedFrom="0" laneChangedTo="0"/>
        <edge id="21224_sa" sampledSeconds="0.00" departed="0" arrived="0" entered="0" left="0" laneChangedFrom="0" laneChangedTo="0"/>
        <edge id="21225_op" sampledSeconds="0.67" traveltime="48.01" overlapTraveltime="48.46" density="0.00" laneDensity="0.00" occupancy="0.00" waitingTime="0.00" timeLoss="0.00" speed="11.12" speedRelative="0.80" departed="0" arrived="0" entered="0" left="0" laneChangedFrom="0" laneChangedTo="0"/>
        <edge id="21225_sa" sampledSeconds="0.00" departed="0" arrived="0" entered="0" left="0" laneChangedFrom="0" laneChangedTo="0"/>
        <edge id="21226_op" sampledSeconds="0.00" departed="0" arrived="0" entered="0" left="0" laneChangedFrom="0" laneChangedTo="0"/>
        <edge id="21226_sa" sampledSeconds="0.91" traveltime="33.63" overlapTraveltime="33.97" density="0.00" laneDensity="0.00" occupancy="0.00" waitingTime="0.00" timeLoss="0.00" speed="14.75" speedRelative="1.06" departed="0" arrived="0" entered="0" left="0" laneChangedFrom="0" laneChangedTo="0"/>
        <edge id="21227_op" sampledSeconds="0.03" traveltime="35.86" overlapTraveltime="36.19" density="0.00" laneDensity="0.00" occupancy="0.00" waitingTime="0.00" timeLoss="0.00" speed="15.33" speedRelative="1.10" departed="4" arrived="0" entered="1" left="0" laneChangedFrom="0" laneChangedTo="0"/>
        <edge id="21227_sa" sampledSeconds="0.58" traveltime="46.46" overlapTraveltime="46.88" density="0.00" laneDensity="0.00" occupancy="0.00" waitingTime="0.00" timeLoss="0.00" speed="11.82" speedRelative="0.85" departed="7" arrived="0" entered="1" left="0" laneChangedFrom="0" laneChangedTo="0"/>
        <edge id="21228_op" sampledSeconds="0.00" departed="8" arrived="0" entered="0" left="0" laneChangedFrom="0" laneChangedTo="0"/>
        <edge id="21228_sa" sampledSeconds="0.00" departed="6" arrived="0" entered="0" left="0" laneChangedFrom="0" laneChangedTo="0"/>
        <edge id="21229_op" sampledSeconds="0.00" departed="8" arrived="0" entered="0" left="0" laneChangedFrom="0" laneChangedTo="0"/>
        <edge id="21229_sa" sampledSeconds="0.53" traveltime="59.65" overlapTraveltime="60.11" density="0.00" laneDensity="0.00" occupancy="0.00" waitingTime="0.00" timeLoss="0.09" speed="11.01" speedRelative="0.79" departed="7" arrived="0" entered="0" left="0" laneChangedFrom="0" laneChangedTo="0"/>
        <edge id="21230_op" sampledSeconds="0.87" traveltime="49.04" overlapTraveltime="49.46" density="0.00" laneDensity="0.00" occupancy="0.00" waitingTime="0.00" timeLoss="0.04" speed="11.98" speedRelative="0.86" departed="2" arrived="0" entered="0" left="0" laneChangedFrom="0" laneChangedTo="0"/>
        <edge id="21230_sa" sampledSeconds="1.42" traveltime="40.37" overlapTraveltime="40.71" density="0.00" laneDensity="0.00" occupancy="0.00" waitingTime="0.00" timeLoss="0.00" speed="14.56" speedRelative="1.05" departed="8" arrived="0" entered="0" left="0" laneChangedFrom="0" laneChangedTo="0"/>
        <edge id="21231_op" sampledSeconds="0.97" traveltime="51.20" overlapTraveltime="51.65" density="0.00" laneDensity="0.00" occupancy="0.00" waitingTime="0.00" timeLoss="0.37" speed="11.16" speedRelative="0.80" departed="3" arrived="0" entered="0" left="0" laneChangedFrom="0" laneChangedTo="0"/>
        <edge id="21231_sa" sampledSeconds="0.80" traveltime="45.45" overlapTraveltime="45.85" density="0.00" laneDensity="0.00" occupancy="0.00" waitingTime="0.00" timeLoss="0.00" speed="12.57" speedRelative="0.91" departed="8" arrived="0" entered="0" left="0" laneChangedFrom="0" laneChangedTo="0"/>
        <edge id="21232_op" sampledSeconds="0.00" departed="9" arrived="0" entered="0" left="0" laneChangedFrom="0" laneChangedTo="0"/>
        <edge id="21232_sa" sampledSeconds="0.00" departed="8" arrived="0" entered="0" left="0" laneChangedFrom="0" laneChangedTo="0"/>
        <edge id="21233_op" sampledSeconds="0.00" departed="2" arrived="0" entered="0" left="0" laneChangedFrom="0" laneChangedTo="0"/>
        <edge id="21233_sa" sampledSeconds="0.00" departed="6" arrived="0" entered="0" left="0" laneChangedFrom="0" laneChangedTo="0"/>
        <edge id="21234_op" sampledSeconds="0.87" traveltime="37.56" overlapTraveltime="37.92" density="0.00" laneDensity="0.00" occupancy="0.00" waitingTime="0.00" timeLoss="0.00" speed="13.61" speedRelative="0.98" departed="0" arrived="0" entered="0" left="0" laneChangedFrom="0" laneChangedTo="0"/>
        <edge id="21234_sa" sampledSeconds="0.00" departed="0" arrived="0" entered="0" left="0" laneChangedFrom="0" laneChangedTo="0"/>
        <edge id="21235_op" sampledSeconds="0.00" departed="9" arrived="0" entered="0" left="0" laneChangedFrom="0" laneChangedTo="0"/>
        <edge id="21235_sa" sampledSeconds="0.00" departed="0" arrived="0" entered="0" left="0" laneChangedFrom="0" laneChangedTo="0"/>
        <edge id="21236_op" sampledSeconds="0.00" departed="9" arrived="0" entered="0" left="0" laneChangedFrom="0" laneChangedTo="0"/>
        <edge id="21236_sa" sampledSeconds="0.00" departed="9" arrived="0" entered="0" left="0" laneChangedFrom="0" laneChangedTo="0"/>
        <edge id="21237_op" sampledSeconds="0.00" departed="2" arrived="0" entered="0" left="0" laneChangedFrom="0" laneChangedTo="0"/>
        <edge id="21237_sa" sampledSeconds="0.00" departed="10" arrived="0" entered="0" left="0" laneChangedFrom="0" laneChangedTo="0"/>
        <edge id="30191_op" sampledSeconds="0.79" traveltime="30.16" overlapTraveltime="30.50" density="0.00" laneDensity="0.00" occupancy="0.00" waitingTime="0.00" timeLoss="0.00" speed="14.65" speedRelative="1.05" departed="7" arrived="0" entered="0" left="0" laneChangedFrom="0" laneChangedTo="0"/>
        <edge id="30191_sa" sampledSeconds="0.00" departed="8" arrived="0" entered="0" left="0" laneChangedFrom="0" laneChangedTo="0"/>
        <edge id="30198_op" sampledSeconds="0.00" departed="8" arrived="0" entered="0" left="0" laneChangedFrom="0" laneChangedTo="0"/>
        <edge id="30198_sa" sampledSeconds="0.00" departed="0" arrived="0" entered="0" left="0" laneChangedFrom="0" laneChangedTo="0"/>
        <edge id="8008_op" sampledSeconds="0.03" traveltime="20.82" overlapTraveltime="21.16" density="0.00" laneDensity="0.00" occupancy="0.00" waitingTime="0.00" timeLoss="0.00" speed="14.59" speedRelative="1.05" departed="8" arrived="0" entered="1" left="0" laneChangedFrom="0" laneChangedTo="0"/>
        <edge id="8008_sa" sampledSeconds="0.00" departed="0" arrived="0" entered="0" left="0" laneChangedFrom="0" laneChangedTo="0"/>
        <edge id="8009_op" sampledSeconds="0.00" departed="9" arrived="0" entered="0" left="0" laneChangedFrom="0" laneChangedTo="0"/>
        <edge id="8009_sa" sampledSeconds="0.00" departed="8" arrived="0" entered="0" left="0" laneChangedFrom="0" laneChangedTo="0"/>
    </interval>
    <interval begin="1801.00" end="2400.00" id="test_1">
        <edge id="1025_op" sampledSeconds="6056.41" traveltime="46.47" overlapTraveltime="46.86" density="16.91" laneDensity="8.46" occupancy="4.23" waitingTime="0.00" timeLoss="336.32" speed="12.86" speedRelative="0.93" departed="8" arrived="68" entered="116" left="63" laneChangedFrom="0" laneChangedTo="0"/>
        <edge id="1025_sa" sampledSeconds="18315.34" traveltime="80.75" overlapTraveltime="81.43" density="51.17" laneDensity="25.59" occupancy="12.79" waitingTime="0.00" timeLoss="8519.66" speed="7.40" speedRelative="0.53" departed="172" arrived="98" entered="48" left="126" laneChangedFrom="0" laneChangedTo="0"/>
        <edge id="1027_op" sampledSeconds="7552.50" traveltime="47.40" overlapTraveltime="47.82" density="22.28" laneDensity="11.14" occupancy="5.57" waitingTime="0.00" timeLoss="915.51" speed="11.94" speedRelative="0.86" departed="23" arrived="1" entered="133" left="155" laneChangedFrom="0" laneChangedTo="0"/>
        <edge id="1027_sa" sampledSeconds="9204.04" traveltime="46.68" overlapTraveltime="47.09" density="27.15" laneDensity="13.58" occupancy="6.79" waitingTime="0.00" timeLoss="975.73" speed="12.12" speedRelative="0.87" departed="35" arrived="53" entered="155" left="143" laneChangedFrom="0" laneChangedTo="0"/>
        <edge id="1047_op" sampledSeconds="6604.18" traveltime="43.24" overlapTraveltime="43.63" density="20.14" laneDensity="10.07" occupancy="5.04" waitingTime="0.00" timeLoss="489.28" speed="12.66" speedRelative="0.91" departed="5" arrived="9" entered="142" left="146" laneChangedFrom="0" laneChangedTo="0"/>
        <edge id="1047_sa" sampledSeconds="30219.42" traveltime="111.87" overlapTraveltime="112.89" density="92.15" laneDensity="46.07" occupancy="23.04" waitingTime="0.00" timeLoss="19518.32" speed="4.89" speedRelative="0.35" departed="28" arrived="21" entered="235" left="249" laneChangedFrom="0" laneChangedTo="0"/>
        <edge id="1214_op" sampledSeconds="7970.16" traveltime="34.94" overlapTraveltime="35.39" density="33.97" laneDensity="16.99" occupancy="8.49" waitingTime="0.00" timeLoss="1411.50" speed="11.21" speedRelative="0.81" departed="13" arrived="25" entered="211" left="203" laneChangedFrom="0" laneChangedTo="0"/>
        <edge id="1214_sa" sampledSeconds="24961.55" traveltime="58.22" overlapTraveltime="58.97" density="106.35" laneDensity="53.18" occupancy="26.59" waitingTime="0.00" timeLoss="12758.05" speed="6.73" speedRelative="0.48" departed="18" arrived="44" entered="406" left="376" laneChangedFrom="0" laneChangedTo="0"/>
        <edge id="1215_op" sampledSeconds="24474.02" traveltime="92.35" overlapTraveltime="93.96" density="142.32" laneDensity="71.16" occupancy="35.58" waitingTime="0.00" timeLoss="18912.08" speed="3.11" speedRelative="0.22" departed="144" arrived="12" entered="123" left="239" laneChangedFrom="0" laneChangedTo="0"/>
        <edge id="1215_sa" sampledSeconds="17037.65" traveltime="32.96" overlapTraveltime="33.53" density="99.03" laneDensity="49.51" occupancy="24.76" waitingTime="0.00" timeLoss="6219.46" speed="8.71" speedRelative="0.63" departed="15" arrived="172" entered="496" left="341" laneChangedFrom="0" laneChangedTo="0"/>
        <edge id="1216_op" sampledSeconds="65180.97" traveltime="322.40" overlapTraveltime="325.05" density="179.26" laneDensity="89.63" occupancy="44.82" waitingTime="0.00" timeLoss="56294.21" speed="1.88" speedRelative="0.14" departed="232" arrived="33" entered="21" left="94" laneChangedFrom="0" laneChangedTo="0"/>